LAMMPS Description

800 atoms
784 bonds
0 angles
0 dihedrals
0 impropers

1 atom types
1 bond types

-5.41979 5.41979 xlo xhi
-5.41979 5.41979 ylo yhi
-5.41979 5.41979 zlo zhi

Masses

1 1 

Atoms

1 1 1 0 -3.29748 2.14498 -1.7765 
2 1 1 0 -3.06059 2.34325 -0.857001 
3 1 1 0 -2.256 1.93957 -0.495627 
4 1 1 0 -1.92801 2.69603 0.015348 
5 1 1 0 -2.56777 3.13201 -0.56906 
6 1 1 0 -3.40588 2.64595 -0.616213 
7 1 1 0 -4.19785 2.67935 -1.17528 
8 1 1 0 -4.87176 2.0122 -1.37939 
9 1 1 0 5.20428 2.34901 -0.884985 
10 1 1 0 -4.99296 3.0751 -0.917911 
11 1 1 0 -4.86945 2.12894 -1.09234 
12 1 1 0 5.26927 1.78608 -0.516019 
13 1 1 0 5.33843 1.10932 0.175432 
14 1 1 0 5.15891 2.01172 0.48257 
15 1 1 0 -4.89637 1.86565 1.03431 
16 1 1 0 -5.2109 2.33386 0.245171 
17 1 1 0 -5.33332 2.3938 -0.715204 
18 1 1 0 -4.43319 2.5809 -1.02448 
19 1 1 0 -3.49475 2.74224 -1.20941 
20 1 1 0 -3.02509 2.03062 -1.67191 
21 1 1 0 -2.10674 2.30064 -1.82885 
22 1 1 0 -2.2432 2.23759 -2.78713 
23 1 1 0 -1.27481 2.18228 -2.77895 
24 1 1 0 -0.63141 2.85745 -3.04554 
25 1 1 0 -0.826731 3.56608 -3.67847 
26 1 1 0 -1.41954 4.3073 -3.47829 
27 1 1 0 -1.22415 4.37589 -2.53065 
28 1 1 0 -2.07759 4.48594 -2.08297 
29 1 1 0 -1.64882 4.87013 -1.30229 
30 1 1 0 -0.767073 5.15006 -1.01065 
31 1 1 0 0.0265618 5.31318 -1.54397 
32 1 1 0 0.728767 4.6457 -1.49629 
33 1 1 0 1.44783 5.06528 -1.99409 
34 1 1 0 2.2094 4.69983 -2.47091 
35 1 1 0 2.45476 4.84564 -1.54385 
36 1 1 0 1.57214 4.67635 -1.17884 
37 1 1 0 2.0145 4.93707 -0.355892 
38 1 1 0 2.34491 4.03288 -0.236812 
39 1 1 0 1.99442 3.16473 -0.490515 
40 1 1 0 1.29079 3.50083 -1.06743 
41 1 1 0 1.90277 2.91854 -1.54421 
42 1 1 0 2.22216 3.29741 -2.37809 
43 1 1 0 1.96189 3.95693 -3.04006 
44 1 1 0 2.73577 4.43383 -3.37853 
45 1 1 0 2.97447 3.5953 -3.80371 
46 1 1 0 2.82459 2.71223 -4.17603 
47 1 1 0 2.64518 2.59617 -5.1222 
48 1 1 0 3.48045 2.16711 -5.36537 
49 1 1 0 2.73288 1.56203 5.34809 
50 1 1 0 2.23496 1.43765 -4.66839 
51 2 1 0 -5.20369 -4.6011 -1.06457 
52 2 1 0 -4.3859 -4.10488 -1.22545 
53 2 1 0 -3.97709 -4.97392 -1.08928 
54 2 1 0 -3.38699 -4.37483 -1.57278 
55 2 1 0 -2.83946 -4.53495 -0.788262 
56 2 1 0 -2.25462 -5.05281 -1.36331 
57 2 1 0 -2.67442 5.28266 -2.07783 
58 2 1 0 -2.07701 -4.85514 -2.38032 
59 2 1 0 -1.63468 -4.19398 -1.82523 
60 2 1 0 -1.34532 -4.17129 -0.899673 
61 2 1 0 -0.501193 -4.0143 -0.448341 
62 2 1 0 -0.365099 -4.55705 -1.24068 
63 2 1 0 -0.34226 -5.31033 -0.629992 
64 2 1 0 0.0756798 -4.88421 0.134633 
65 2 1 0 -0.417596 -4.13067 -0.225572 
66 2 1 0 0.298693 -3.55262 -0.531664 
67 2 1 0 0.0958833 -4.22398 -1.20177 
68 2 1 0 0.584341 -4.17934 -2.03862 
69 2 1 0 1.40446 -3.68124 -2.18076 
70 2 1 0 1.62863 -3.47488 -1.25986 
71 2 1 0 2.1504 -4.11925 -0.756427 
72 2 1 0 2.84615 -4.79496 -0.741255 
73 2 1 0 2.38713 5.26925 -0.382105 
74 2 1 0 3.34419 5.35095 -0.246973 
75 2 1 0 3.17415 5.16941 -1.18454 
76 2 1 0 2.25794 -5.41461 -0.994454 
77 2 1 0 2.39958 -4.49139 -1.2562 
78 2 1 0 2.21179 -4.40749 -0.308253 
79 2 1 0 2.76082 -3.90204 0.311414 
80 2 1 0 2.41273 -3.00496 0.189041 
81 2 1 0 2.33773 -3.03486 1.15568 
82 2 1 0 2.62094 -2.16499 1.47821 
83 2 1 0 2.45916 -2.80153 2.19203 
84 2 1 0 1.54398 -3.01915 2.42864 
85 2 1 0 0.827355 -2.56195 1.96139 
86 2 1 0 0.186956 -1.85235 1.7963 
87 2 1 0 -0.136054 -1.66965 2.69251 
88 2 1 0 0.805839 -1.67224 2.92431 
89 2 1 0 0.733421 -0.711006 2.81618 
90 2 1 0 0.459919 -0.228936 3.61224 
91 2 1 0 1.22775 -0.772812 3.8479 
92 2 1 0 1.95865 -1.26671 4.25131 
93 2 1 0 2.47801 -2.07762 4.36794 
94 2 1 0 3.1443 -1.43293 4.65316 
95 2 1 0 3.76275 -1.04735 5.29328 
96 2 1 0 3.74356 -1.92828 -5.14072 
97 2 1 0 3.05615 -1.95186 5.0149 
98 2 1 0 3.21473 -2.84064 5.36961 
99 2 1 0 4.09601 -3.23821 -5.39134 
100 2 1 0 4.77807 -3.20356 4.75941 
101 3 1 0 -1.39068 -3.03417 4.97711 
102 3 1 0 -1.13087 -3.09853 4.04477 
103 3 1 0 -0.821781 -2.28728 3.61207 
104 3 1 0 -0.81401 -2.96975 2.92281 
105 3 1 0 -0.100626 -3.62103 3.01121 
106 3 1 0 -0.27568 -4.25396 2.29731 
107 3 1 0 -0.348187 -4.59419 3.20279 
108 3 1 0 0.560515 -4.48629 2.88105 
109 3 1 0 0.731369 -3.80651 3.55157 
110 3 1 0 1.11341 -3.09699 4.0915 
111 3 1 0 0.940251 -2.32254 3.5337 
112 3 1 0 0.457205 -1.61382 3.08061 
113 3 1 0 0.261446 -2.43976 2.61113 
114 3 1 0 0.0662925 -3.14231 1.97142 
115 3 1 0 0.306075 -3.85266 1.35595 
116 3 1 0 0.875341 -4.63454 1.43011 
117 3 1 0 1.499 -4.42035 2.1415 
118 3 1 0 2.17703 -4.90989 1.65005 
119 3 1 0 3.10112 -4.82378 1.36803 
120 3 1 0 2.89911 -4.27604 0.593393 
121 3 1 0 2.41854 -3.44229 0.715081 
122 3 1 0 2.74777 -2.57927 0.418924 
123 3 1 0 3.55741 -2.28755 0.866443 
124 3 1 0 3.46098 -2.40641 1.82429 
125 3 1 0 3.84686 -3.02079 2.46813 
126 3 1 0 2.9662 -3.02289 2.87473 
127 3 1 0 2.49632 -3.80391 3.20659 
128 3 1 0 1.79841 -4.42734 2.95136 
129 3 1 0 1.51661 -5.35546 2.94134 
130 3 1 0 1.45404 4.52754 3.08939 
131 3 1 0 0.827738 3.78894 3.14524 
132 3 1 0 0.583336 4.52026 2.55673 
133 3 1 0 -0.03079 4.11958 1.92175 
134 3 1 0 0.159615 4.71788 1.18237 
135 3 1 0 0.619718 5.37225 1.731 
136 3 1 0 1.58727 5.31685 1.69013 
137 3 1 0 1.49748 5.02764 0.76861 
138 3 1 0 1.59831 5.29596 -0.158071 
139 3 1 0 1.97224 -4.64903 -0.130349 
140 3 1 0 2.90098 -4.41406 -0.282455 
141 3 1 0 2.92903 -3.45744 -0.124379 
142 3 1 0 3.05616 -2.75202 0.529167 
143 3 1 0 2.96407 -3.43126 1.2155 
144 3 1 0 2.7844 -2.97277 2.05121 
145 3 1 0 3.09377 -2.73023 2.93798 
146 3 1 0 2.16498 -3.00975 2.92688 
147 3 1 0 1.80168 -3.90184 3.04129 
148 3 1 0 1.20216 -4.46225 3.5584 
149 3 1 0 1.05914 -5.3823 3.28645 
150 3 1 0 0.590663 -4.836 2.63609 
151 4 1 0 2.37621 3.9269 -2.87377 
152 4 1 0 2.73321 3.02621 -2.82668 
153 4 1 0 2.86141 2.09424 -3.06311 
154 4 1 0 2.65028 1.66804 -3.9085 
155 4 1 0 2.97126 0.927323 -4.44628 
156 4 1 0 2.07697 0.685497 -4.15877 
157 4 1 0 2.43621 1.06111 -3.33977 
158 4 1 0 3.40477 1.10156 -3.30577 
159 4 1 0 3.13455 0.647 -4.11895 
160 4 1 0 3.66422 0.27707 -4.84249 
161 4 1 0 3.704 1.02365 5.3791 
162 4 1 0 2.73736 1.0032 5.3011 
163 4 1 0 1.88621 1.45142 5.17639 
164 4 1 0 1.37919 0.825337 -5.12296 
165 4 1 0 1.08096 0.199459 5.03822 
166 4 1 0 0.514436 -0.0182122 4.28153 
167 4 1 0 0.183659 -0.109066 3.37421 
168 4 1 0 -0.29916 -0.107116 2.53291 
169 4 1 0 -0.593868 -0.971183 2.20514 
170 4 1 0 -0.83176 -1.88278 2.43601 
171 4 1 0 -1.74488 -1.69869 2.16542 
172 4 1 0 -1.76017 -0.775085 1.8694 
173 4 1 0 -1.19147 -0.716362 1.08579 
174 4 1 0 -1.40485 -1.4769 0.522806 
175 4 1 0 -2.2517 -1.03431 0.689708 
176 4 1 0 -2.01464 -0.194196 1.11269 
177 4 1 0 -2.31116 -0.579324 1.95212 
178 4 1 0 -2.99795 -0.0491673 2.38588 
179 4 1 0 -2.59936 0.124743 3.25293 
180 4 1 0 -2.22418 -0.334753 4.0204 
181 4 1 0 -2.65396 0.430239 4.4339 
182 4 1 0 -2.69632 1.38331 4.60927 
183 4 1 0 -3.35432 1.33256 3.89838 
184 4 1 0 -3.26 1.86074 3.09028 
185 4 1 0 -2.31472 1.78933 2.88472 
186 4 1 0 -1.54691 1.38389 2.4523 
187 4 1 0 -2.00621 0.697893 2.96156 
188 4 1 0 -2.15008 0.182204 3.77043 
189 4 1 0 -2.51242 0.893931 4.32093 
190 4 1 0 -2.78943 1.15326 5.21363 
191 4 1 0 -3.52214 1.54377 -5.12441 
192 4 1 0 -4.22917 1.20071 -4.55581 
193 4 1 0 -4.98406 1.08275 -5.15342 
194 4 1 0 -5.17622 1.00587 4.73851 
195 4 1 0 4.69945 0.90208 4.77014 
196 4 1 0 5.18019 0.0657462 4.66845 
197 4 1 0 4.22969 -0.0236318 4.4968 
198 4 1 0 4.02476 0.882388 4.77614 
199 4 1 0 3.14972 0.784578 4.36916 
200 4 1 0 2.70815 0.655055 5.22306 
201 5 1 0 -4.80858 2.16826 -0.820673 
202 5 1 0 5.15571 2.16302 -1.23868 
203 5 1 0 -4.9442 1.5393 -1.30774 
204 5 1 0 -5.24896 0.990247 -0.568441 
205 5 1 0 4.79222 1.05564 -1.1154 
206 5 1 0 4.13195 1.15137 -0.411289 
207 5 1 0 4.34011 1.8924 0.178993 
208 5 1 0 5.14891 1.49988 0.543228 
209 5 1 0 -4.76632 1.26368 0.718372 
210 5 1 0 -5.05529 0.433447 0.308352 
211 5 1 0 5.29519 0.188948 1.10953 
212 5 1 0 -5.12773 -0.392122 0.454064 
213 5 1 0 -5.16939 -1.28456 0.0762933 
214 5 1 0 -4.91551 -2.16944 0.381977 
215 5 1 0 -4.27863 -1.91392 1.06754 
216 5 1 0 -3.4565 -2.42094 1.15658 
217 5 1 0 -3.26259 -1.88103 0.374406 
218 5 1 0 -2.49469 -2.21635 -0.114257 
219 5 1 0 -1.62224 -1.80477 -0.215904 
220 5 1 0 -0.713042 -1.95372 0.0875337 
221 5 1 0 -1.09241 -1.90975 0.979187 
222 5 1 0 -1.14563 -1.23792 1.67683 
223 5 1 0 -1.40344 -0.451906 2.18341 
224 5 1 0 -1.29757 0.195118 1.46853 
225 5 1 0 -0.346661 0.342928 1.34678 
226 5 1 0 0.419391 -0.141472 1.0012 
227 5 1 0 -0.390344 -0.46766 0.578317 
228 5 1 0 -0.281863 0.110096 -0.193259 
229 5 1 0 -1.21142 0.176318 0.0758884 
230 5 1 0 -1.05464 0.27934 -0.875798 
231 5 1 0 -1.58675 1.01846 -1.20965 
232 5 1 0 -1.66084 1.33684 -0.296393 
233 5 1 0 -0.840329 0.819518 -0.290454 
234 5 1 0 0.106891 0.99734 -0.180662 
235 5 1 0 0.213831 0.105748 0.186118 
236 5 1 0 0.749891 -0.64182 -0.121585 
237 5 1 0 1.65045 -0.667952 -0.481039 
238 5 1 0 2.47827 -0.925141 -0.0457515 
239 5 1 0 3.16522 -0.923052 0.639082 
240 5 1 0 4.11582 -1.01524 0.808683 
241 5 1 0 3.98151 -0.656037 -0.0822917 
242 5 1 0 3.2513 -0.0194116 -0.0332818 
243 5 1 0 3.53358 -0.36462 0.828142 
244 5 1 0 3.06974 -0.494156 1.67015 
245 5 1 0 3.14519 0.326753 2.18134 
246 5 1 0 2.7597 -0.318826 2.79414 
247 5 1 0 2.66452 -1.12418 3.32634 
248 5 1 0 2.01999 -1.84744 3.27754 
249 5 1 0 2.06717 -2.78669 3.51522 
250 5 1 0 1.87298 -3.70716 3.27874 
251 6 1 0 0.614995 -4.73492 4.53809 
252 6 1 0 0.884785 5.22249 4.23832 
253 6 1 0 1.60443 5.33052 3.59696 
254 6 1 0 2.16826 4.66513 4.02152 
255 6 1 0 2.21412 4.51796 4.97919 
256 6 1 0 1.3149 4.73654 4.68843 
257 6 1 0 1.51794 4.56348 3.75584 
258 6 1 0 1.23212 3.99738 3.02186 
259 6 1 0 1.04047 4.94342 2.92612 
260 6 1 0 0.281426 4.53435 3.37043 
261 6 1 0 0.938209 4.58795 4.08224 
262 6 1 0 0.638356 4.7825 4.98398 
263 6 1 0 -0.277274 4.69416 5.29174 
264 6 1 0 -0.484431 3.78816 -5.27007 
265 6 1 0 0.22775 4.44072 -5.35878 
266 6 1 0 -0.0233659 4.69266 4.57838 
267 6 1 0 -0.322079 5.26911 3.85771 
268 6 1 0 -0.506676 -4.69242 3.48914 
269 6 1 0 0.340299 -4.70438 3.96178 
270 6 1 0 -0.390453 -5.15441 4.41386 
271 6 1 0 -0.884475 4.85179 4.36573 
272 6 1 0 -1.03774 5.38635 5.1605 
273 6 1 0 -0.638605 -4.57 5.19896 
274 6 1 0 -0.0601571 -4.5731 4.42032 
275 6 1 0 0.630481 -5.06969 3.95415 
276 6 1 0 -0.132577 -4.91467 3.37569 
277 6 1 0 -0.475477 -5.33019 2.56905 
278 6 1 0 -0.565595 4.54405 2.53943 
279 6 1 0 -0.917194 3.73735 2.94749 
280 6 1 0 -0.742349 3.27537 3.7823 
281 6 1 0 -1.39682 3.97268 3.94457 
282 6 1 0 -0.618994 3.96511 4.52408 
283 6 1 0 -0.349747 3.20202 3.98921 
284 6 1 0 0.374235 2.67382 4.36036 
285 6 1 0 0.819148 1.83273 4.17186 
286 6 1 0 -0.144076 1.8009 4.06193 
287 6 1 0 -0.0924475 1.93314 5.02149 
288 6 1 0 0.293956 1.48306 -5.05062 
289 6 1 0 0.623856 0.810165 5.17311 
290 6 1 0 1.33064 0.659143 4.52615 
291 6 1 0 1.32481 1.6291 4.5198 
292 6 1 0 1.27608 2.58285 4.34983 
293 6 1 0 0.640231 3.09914 4.86948 
294 6 1 0 0.357475 4.02627 4.83244 
295 6 1 0 1.2031 3.93188 4.36671 
296 6 1 0 0.862439 3.99729 3.46086 
297 6 1 0 -0.0077374 3.70054 3.15162 
298 6 1 0 0.198216 2.8654 2.70325 
299 6 1 0 -0.259309 2.07817 3.03766 
300 6 1 0 -0.982272 1.80327 3.62303 
301 7 1 0 -4.16071 -2.92255 -5.11603 
302 7 1 0 -4.55437 -3.32788 4.93511 
303 7 1 0 5.38637 -3.17068 5.26414 
304 7 1 0 -4.58941 -3.00644 -5.16587 
305 7 1 0 -4.94156 -2.52929 -4.39827 
306 7 1 0 5.16276 -2.61225 -5.02549 
307 7 1 0 -5.36717 -2.41304 4.91669 
308 7 1 0 -5.04597 -3.32822 4.90376 
309 7 1 0 -4.4313 -3.96877 5.29465 
310 7 1 0 -4.9577 -4.29025 -4.7963 
311 7 1 0 -5.17959 -3.53771 -4.2259 
312 7 1 0 4.90189 -2.96609 -4.42444 
313 7 1 0 -5.03039 -2.66897 -4.25298 
314 7 1 0 5.19878 -1.92758 -4.11648 
315 7 1 0 4.461 -1.32537 -4.30063 
316 7 1 0 4.40602 -0.477678 -4.76893 
317 7 1 0 4.09163 0.433826 -4.66301 
318 7 1 0 3.44339 -0.22681 -4.37276 
319 7 1 0 3.04048 -0.439773 -5.22904 
320 7 1 0 3.65275 -1.18242 -5.34944 
321 7 1 0 2.73816 -1.45373 5.31462 
322 7 1 0 3.14421 -2.1292 4.74914 
323 7 1 0 4.08611 -1.89743 4.74561 
324 7 1 0 3.47772 -1.14646 4.82817 
325 7 1 0 3.03451 -0.826459 -5.21013 
326 7 1 0 3.08706 -1.66492 -4.72524 
327 7 1 0 2.24882 -1.57702 -4.24511 
328 7 1 0 1.68737 -2.12246 -3.67225 
329 7 1 0 2.16245 -2.9151 -3.96706 
330 7 1 0 2.87794 -2.26683 -3.87367 
331 7 1 0 3.1533 -1.97925 -4.75819 
332 7 1 0 3.84412 -2.60855 -5.01827 
333 7 1 0 4.4175 -1.95494 5.39127 
334 7 1 0 3.97204 -1.78847 4.54584 
335 7 1 0 4.62919 -2.24772 3.99982 
336 7 1 0 5.09682 -1.74876 4.68776 
337 7 1 0 -5.23494 -1.43734 -5.3863 
338 7 1 0 -5.28178 -2.4041 5.38944 
339 7 1 0 -5.09936 -1.49585 5.10188 
340 7 1 0 5.3613 -0.659292 4.78965 
341 7 1 0 4.64571 -0.694928 -5.39606 
342 7 1 0 4.22267 -1.16671 -4.66165 
343 7 1 0 4.72397 -1.97805 -4.83861 
344 7 1 0 -5.33398 -1.49997 -4.52019 
345 7 1 0 -4.56347 -1.37889 -3.94352 
346 7 1 0 -4.16674 -0.493942 -3.96299 
347 7 1 0 -4.94106 -0.377297 -4.53546 
348 7 1 0 5.36378 0.130063 -3.90497 
349 7 1 0 4.67579 0.732952 -3.58233 
350 7 1 0 5.10013 0.451262 -2.7568 
351 8 1 0 3.40035 3.36572 -4.14121 
352 8 1 0 4.27385 3.69851 -3.88207 
353 8 1 0 4.55236 2.85536 -4.2725 
354 8 1 0 4.04621 2.02819 -4.25051 
355 8 1 0 4.96585 1.94718 -3.95286 
356 8 1 0 4.85659 2.35358 -3.0789 
357 8 1 0 4.65992 1.42207 -2.89315 
358 8 1 0 4.9685 1.90742 -2.11205 
359 8 1 0 5.18452 0.962968 -2.06467 
360 8 1 0 5.39871 0.329763 -2.76757 
361 8 1 0 4.56378 0.571456 -3.19813 
362 8 1 0 4.57245 1.25392 -2.50888 
363 8 1 0 4.62099 1.87745 -1.76742 
364 8 1 0 5.13241 2.54025 -1.27748 
365 8 1 0 4.87627 2.77304 -0.371339 
366 8 1 0 -5.40592 3.54446 -0.183927 
367 8 1 0 4.96975 4.34104 -0.485821 
368 8 1 0 4.71404 3.44588 -0.21343 
369 8 1 0 4.92359 2.90294 0.562588 
370 8 1 0 4.06231 2.77212 0.989175 
371 8 1 0 3.96585 3.47084 1.65504 
372 8 1 0 4.24997 3.77364 0.778408 
373 8 1 0 5.05198 3.23246 0.709081 
374 8 1 0 4.44909 3.11329 -0.0414075 
375 8 1 0 4.42723 4.02095 -0.382839 
376 8 1 0 3.60396 4.39539 -0.032239 
377 8 1 0 3.67359 5.36212 0.00639952 
378 8 1 0 3.83548 -4.86226 -0.725862 
379 8 1 0 3.63282 -4.1399 -0.111032 
380 8 1 0 3.13088 -3.75885 0.626367 
381 8 1 0 3.26409 -2.80706 0.757692 
382 8 1 0 3.95378 -2.32466 1.2399 
383 8 1 0 4.77518 -2.0809 1.69462 
384 8 1 0 -5.12122 -1.86247 1.63472 
385 8 1 0 -5.04293 -1.68152 0.684973 
386 8 1 0 -4.11829 -1.48941 0.906378 
387 8 1 0 -3.57963 -1.04934 0.230293 
388 8 1 0 -4.00765 -0.309302 -0.227999 
389 8 1 0 -4.7291 -0.405712 0.413186 
390 8 1 0 -4.19039 0.147706 1.00006 
391 8 1 0 -5.06691 0.173914 1.41469 
392 8 1 0 -5.00481 0.989473 1.93614 
393 8 1 0 5.19786 1.65003 2.25063 
394 8 1 0 4.65611 2.23594 2.80209 
395 8 1 0 4.17836 2.88442 3.34259 
396 8 1 0 4.62069 2.99793 4.19836 
397 8 1 0 -5.29937 3.17303 4.45275 
398 8 1 0 5.11364 3.77179 5.08554 
399 8 1 0 -4.98292 4.18249 4.61635 
400 8 1 0 -4.38747 3.57703 5.08512 
401 9 1 0 -1.50874 -3.58891 3.44357 
402 9 1 0 -0.850922 -4.13197 3.90538 
403 9 1 0 -0.868891 -4.76253 3.16852 
404 9 1 0 -0.519396 -3.96505 2.74099 
405 9 1 0 0.194924 -3.38969 2.42539 
406 9 1 0 0.575903 -3.96916 1.74718 
407 9 1 0 0.00681883 -4.75064 1.66763 
408 9 1 0 -0.640914 -5.36957 1.29578 
409 9 1 0 -1.58016 5.28111 1.44756 
410 9 1 0 -2.1631 -5.2157 2.14297 
411 9 1 0 -1.79827 4.95808 2.7467 
412 9 1 0 -0.873146 5.23951 2.67025 
413 9 1 0 -0.579149 5.28446 3.59353 
414 9 1 0 -1.07372 4.45966 3.72001 
415 9 1 0 -0.168953 4.20462 3.95927 
416 9 1 0 -0.509286 3.29984 3.87904 
417 9 1 0 -0.547925 2.64228 4.5911 
418 9 1 0 -1.44826 3.0025 4.61451 
419 9 1 0 -2.41217 2.89811 4.58493 
420 9 1 0 -2.74545 3.763 4.87092 
421 9 1 0 -3.0889 3.6915 3.96658 
422 9 1 0 -3.98531 3.96562 4.216 
423 9 1 0 -3.66612 4.8628 4.40066 
424 9 1 0 -3.59971 4.9473 5.36469 
425 9 1 0 -3.91405 4.07955 5.0662 
426 9 1 0 -4.76024 4.06634 -5.29938 
427 9 1 0 -5.39517 4.76846 5.32855 
428 9 1 0 4.51051 5.02738 5.28761 
429 9 1 0 4.11547 -4.98335 4.97481 
430 9 1 0 3.99587 -4.34121 4.2577 
431 9 1 0 3.91466 -5.24497 3.91488 
432 9 1 0 3.31347 -4.75013 3.33642 
433 9 1 0 2.88585 -3.9078 3.11615 
434 9 1 0 2.48126 -3.32242 2.45695 
435 9 1 0 2.56458 -2.5208 1.91717 
436 9 1 0 2.7954 -2.83596 1.02931 
437 9 1 0 2.75285 -3.23461 0.14604 
438 9 1 0 3.12487 -3.45687 -0.721775 
439 9 1 0 3.32016 -4.39953 -0.840729 
440 9 1 0 3.08824 -5.19638 -1.34287 
441 9 1 0 2.88511 -4.76974 -2.18999 
442 9 1 0 3.21981 -3.85949 -2.17182 
443 9 1 0 3.99778 -3.84464 -2.751 
444 9 1 0 4.95407 -3.74419 -2.87873 
445 9 1 0 -4.95246 -3.98752 -2.77344 
446 9 1 0 -4.27581 -4.26498 -3.41067 
447 9 1 0 -3.63712 -3.67285 -2.98363 
448 9 1 0 -3.85452 -4.11752 -2.14942 
449 9 1 0 -3.43624 -4.93224 -1.82977 
450 9 1 0 -2.48084 -4.8575 -1.97987 
451 10 1 0 0.697724 -1.78196 0.420417 
452 10 1 0 0.112503 -1.62992 1.1789 
453 10 1 0 0.779279 -0.926119 1.14764 
454 10 1 0 0.824338 -0.241632 1.83346 
455 10 1 0 0.0526877 0.345002 1.86975 
456 10 1 0 -0.669312 0.502493 1.24141 
457 10 1 0 -1.18372 0.744548 2.02735 
458 10 1 0 -0.648697 0.704833 2.83548 
459 10 1 0 0.0750341 0.244584 2.38239 
460 10 1 0 0.773912 0.807913 2.74999 
461 10 1 0 0.912466 -0.0228186 3.23123 
462 10 1 0 -0.0441613 0.105968 3.13543 
463 10 1 0 -0.0573535 0.5698 3.98724 
464 10 1 0 -0.724119 0.708341 4.67799 
465 10 1 0 -1.54284 0.826344 4.17135 
466 10 1 0 -2.26096 0.174322 4.17955 
467 10 1 0 -2.1474 -0.527508 3.51967 
468 10 1 0 -2.26018 -0.435068 2.5607 
469 10 1 0 -2.194 0.525877 2.44622 
470 10 1 0 -2.2255 1.1877 3.15466 
471 10 1 0 -1.89934 1.59712 2.33802 
472 10 1 0 -2.28934 2.46884 2.16801 
473 10 1 0 -2.02417 3.34224 2.49627 
474 10 1 0 -2.15133 3.89372 1.70849 
475 10 1 0 -3.10322 4.07697 1.67338 
476 10 1 0 -2.55365 4.85956 1.51079 
477 10 1 0 -2.22812 5.11972 2.38672 
478 10 1 0 -1.26453 5.12941 2.2758 
479 10 1 0 -0.511922 -5.3839 2.79352 
480 10 1 0 -1.33386 5.25002 2.32128 
481 10 1 0 -1.43686 -5.35694 3.25732 
482 10 1 0 -0.953485 5.29106 4.07619 
483 10 1 0 -1.7921 4.9173 4.38913 
484 10 1 0 -1.85641 5.22378 5.30719 
485 10 1 0 -2.7005 -5.21805 5.04223 
486 10 1 0 -3.52266 -5.27685 -5.28598 
487 10 1 0 -3.44788 4.91586 -4.56705 
488 10 1 0 -4.25421 4.38201 -4.49136 
489 10 1 0 -4.67169 3.67186 -5.00351 
490 10 1 0 -4.06824 3.36975 5.13931 
491 10 1 0 -4.98312 3.62011 5.34233 
492 10 1 0 -4.95455 2.67055 -5.30123 
493 10 1 0 5.12653 2.09166 5.36389 
494 10 1 0 5.11454 1.71259 -4.58291 
495 10 1 0 -4.89633 1.57147 -4.09897 
496 10 1 0 -4.04208 1.94595 -3.83265 
497 10 1 0 -3.66771 2.43948 -4.57909 
498 10 1 0 -2.81895 2.02813 -4.80556 
499 10 1 0 -2.11738 2.68827 -4.91922 
500 10 1 0 -2.96592 3.07148 -4.64714 
501 11 1 0 -1.4989 -0.84354 0.79916 
502 11 1 0 -1.12862 -0.72036 -0.0888798 
503 11 1 0 -1.63379 0.0983211 0.0354658 
504 11 1 0 -1.0502 0.577739 0.644139 
505 11 1 0 -0.116117 0.596811 0.38332 
506 11 1 0 -0.0543789 1.06472 -0.464115 
507 11 1 0 0.047835 1.59017 -1.27304 
508 11 1 0 0.761647 2.24265 -1.1979 
509 11 1 0 1.16684 3.08518 -0.939355 
510 11 1 0 1.75721 2.75816 -0.242636 
511 11 1 0 1.94716 2.39063 -1.11998 
512 11 1 0 2.56219 2.93816 -1.63267 
513 11 1 0 1.76837 2.79076 -2.17029 
514 11 1 0 2.17507 2.0947 -2.70974 
515 11 1 0 2.59071 1.27502 -2.39949 
516 11 1 0 3.28134 1.9295 -2.21086 
517 11 1 0 2.48758 2.38424 -2.53344 
518 11 1 0 1.58694 2.14688 -2.80437 
519 11 1 0 1.14442 2.42675 -3.62092 
520 11 1 0 0.202633 2.34561 -3.4033 
521 11 1 0 0.0834086 1.65565 -2.732 
522 11 1 0 0.432269 1.88811 -1.85727 
523 11 1 0 0.465036 1.15812 -1.21934 
524 11 1 0 0.363536 0.276133 -1.6101 
525 11 1 0 0.81781 0.00317061 -0.797683 
526 11 1 0 1.67175 -0.337359 -1.10707 
527 11 1 0 1.90951 -0.351194 -2.04738 
528 11 1 0 2.71378 -0.212327 -2.57156 
529 11 1 0 3.61858 0.11282 -2.70007 
530 11 1 0 4.17446 0.825665 -3.05185 
531 11 1 0 4.55928 0.462309 -3.86474 
532 11 1 0 5.02694 -0.273193 -3.43903 
533 11 1 0 -5.298 0.544864 -3.52159 
534 11 1 0 -4.76039 -0.0897885 -4.02069 
535 11 1 0 -5.30363 0.372826 -4.67779 
536 11 1 0 -4.79698 0.156435 5.36344 
537 11 1 0 -4.48533 -0.520907 -4.85568 
538 11 1 0 -5.30189 -0.536238 -5.37903 
539 11 1 0 4.77887 -0.0849544 -4.97727 
540 11 1 0 4.8071 0.453127 -4.17069 
541 11 1 0 3.86902 0.464088 -3.92412 
542 11 1 0 3.88817 0.535604 -4.89129 
543 11 1 0 3.71554 -0.201918 5.34236 
544 11 1 0 3.64262 0.393578 4.58015 
545 11 1 0 3.67646 1.10866 5.23468 
546 11 1 0 4.38226 1.41404 -5.01372 
547 11 1 0 3.57994 1.78014 -5.41764 
548 11 1 0 3.84826 2.61138 5.00011 
549 11 1 0 3.28559 2.03 4.46504 
550 11 1 0 3.99574 1.40498 4.67935 
551 12 1 0 -3.3209 -1.36954 5.40285 
552 12 1 0 -2.79581 -1.83868 4.7357 
553 12 1 0 -2.51568 -2.4765 5.41069 
554 12 1 0 -2.74798 -3.4181 -5.41094 
555 12 1 0 -2.62891 -4.38058 5.4094 
556 12 1 0 -2.7633 -3.42535 -5.3283 
557 12 1 0 -3.46084 -3.96873 5.11244 
558 12 1 0 -4.29252 -4.18759 4.66377 
559 12 1 0 -3.78004 -4.86722 4.19862 
560 12 1 0 -3.77751 -4.247 3.45281 
561 12 1 0 -4.5233 -3.71949 3.77904 
562 12 1 0 -4.44818 -3.18231 2.97487 
563 12 1 0 -5.11371 -2.47902 2.9169 
564 12 1 0 5.29515 -1.64327 3.1554 
565 12 1 0 5.00335 -2.55561 3.00248 
566 12 1 0 5.20683 -2.44436 2.06061 
567 12 1 0 -4.81474 -2.73437 1.62745 
568 12 1 0 -4.45937 -3.06944 0.789393 
569 12 1 0 -3.83077 -2.764 0.116736 
570 12 1 0 -4.65215 -2.84457 -0.392916 
571 12 1 0 -4.88601 -1.90452 -0.44315 
572 12 1 0 -4.97304 -2.23785 -1.34991 
573 12 1 0 -4.54342 -3.10301 -1.43834 
574 12 1 0 5.40177 -3.21326 -1.79722 
575 12 1 0 5.16674 -3.50062 -0.901074 
576 12 1 0 4.87525 -4.16383 -1.54612 
577 12 1 0 3.99099 -3.76511 -1.55051 
578 12 1 0 4.29057 -3.40133 -0.702672 
579 12 1 0 3.5018 -3.16635 -0.189319 
580 12 1 0 3.5869 -3.04501 0.769292 
581 12 1 0 4.22464 -3.28058 1.46117 
582 12 1 0 3.72852 -2.92027 2.2128 
583 12 1 0 3.09374 -2.53858 1.58649 
584 12 1 0 3.00699 -1.96069 2.36072 
585 12 1 0 2.50963 -1.76462 3.1701 
586 12 1 0 1.65685 -2.08964 2.8414 
587 12 1 0 2.12731 -2.92541 2.98649 
588 12 1 0 1.9852 -3.72408 3.51832 
589 12 1 0 1.32011 -3.61377 2.8209 
590 12 1 0 1.51178 -2.66474 2.7616 
591 12 1 0 0.669367 -2.91158 2.3489 
592 12 1 0 0.85278 -3.78547 1.96999 
593 12 1 0 0.988199 -3.88599 1.01476 
594 12 1 0 1.59414 -3.1986 1.33293 
595 12 1 0 1.00498 -2.63866 1.86232 
596 12 1 0 1.16396 -2.08681 2.64404 
597 12 1 0 0.261067 -2.41669 2.7739 
598 12 1 0 0.34292 -2.38195 1.80798 
599 12 1 0 0.245497 -1.41823 1.75645 
600 12 1 0 -0.627837 -1.74839 2.01948 
601 13 1 0 2.21818 3.57995 -2.27418 
602 13 1 0 1.31622 3.93018 -2.34282 
603 13 1 0 1.77563 4.7531 -2.11336 
604 13 1 0 1.90635 5.33447 -2.87875 
605 13 1 0 2.17852 -5.0054 -2.09319 
606 13 1 0 2.95591 -4.49116 -2.36174 
607 13 1 0 3.45809 -3.88895 -2.93276 
608 13 1 0 4.25455 -4.42699 -2.80209 
609 13 1 0 4.42835 -4.85867 -3.65317 
610 13 1 0 4.80292 -5.29767 -4.43284 
611 13 1 0 3.95873 -5.03851 -4.83419 
612 13 1 0 4.03939 5.2727 5.19594 
613 13 1 0 3.69713 4.46149 -5.23659 
614 13 1 0 4.12875 4.40919 4.73589 
615 13 1 0 4.20357 3.44208 4.73791 
616 13 1 0 5.07804 3.12011 4.46858 
617 13 1 0 -4.92846 3.30254 4.00643 
618 13 1 0 4.98265 3.55251 4.13427 
619 13 1 0 5.38076 4.20448 4.73205 
620 13 1 0 -4.79813 4.90442 4.85233 
621 13 1 0 -3.97765 4.95854 4.33776 
622 13 1 0 -3.40062 -5.29577 3.82261 
623 13 1 0 -3.0684 -4.47437 4.21738 
624 13 1 0 -2.63226 -5.18094 4.71882 
625 13 1 0 -2.61734 4.70762 4.90912 
626 13 1 0 -3.03053 3.98847 4.40613 
627 13 1 0 -2.20357 3.49843 4.27613 
628 13 1 0 -1.78545 3.74819 5.11499 
629 13 1 0 -2.39775 4.27149 -5.18409 
630 13 1 0 -2.72475 4.34808 -4.27409 
631 13 1 0 -3.61924 4.17463 -3.94135 
632 13 1 0 -3.76227 3.46608 -4.58819 
633 13 1 0 -4.64901 3.45523 -4.98123 
634 13 1 0 -4.38807 2.54721 -5.20105 
635 13 1 0 -3.43365 2.68573 -5.09719 
636 13 1 0 -2.63161 2.54671 5.21484 
637 13 1 0 -3.30894 2.97936 4.67175 
638 13 1 0 -2.90807 2.38566 4.01775 
639 13 1 0 -3.41208 2.86871 3.34429 
640 13 1 0 -4.09613 2.2506 3.04276 
641 13 1 0 -4.45419 3.10815 2.76474 
642 13 1 0 -4.37705 4.00479 3.12666 
643 13 1 0 -5.19688 4.37421 2.76292 
644 13 1 0 5.17001 4.53437 3.59467 
645 13 1 0 4.45368 4.36492 2.96296 
646 13 1 0 4.44026 5.32213 3.1194 
647 13 1 0 3.75916 -5.10268 2.56718 
648 13 1 0 4.69435 -5.23226 2.7897 
649 13 1 0 4.71329 4.97277 2.05629 
650 13 1 0 3.78434 5.23783 2.1441 
651 14 1 0 -1.00967 5.31037 -1.76184 
652 14 1 0 -1.44001 -5.00716 -1.06674 
653 14 1 0 -1.60008 4.99574 -1.53067 
654 14 1 0 -2.29321 -5.37614 -2.02232 
655 14 1 0 -1.59319 -5.16518 -1.38484 
656 14 1 0 -1.07482 5.37263 -2.14716 
657 14 1 0 -1.73366 -4.75937 -2.22562 
658 14 1 0 -2.28743 -5.11079 -1.51095 
659 14 1 0 -2.71142 5.24192 -2.23488 
660 14 1 0 -1.75538 5.20127 -2.07605 
661 14 1 0 -1.17173 5.31296 -1.30938 
662 14 1 0 -0.759222 5.26589 -0.432731 
663 14 1 0 -1.36318 -5.344 0.290715 
664 14 1 0 -1.16118 5.06512 -0.554742 
665 14 1 0 -1.42932 5.25429 -1.46755 
666 14 1 0 -1.56195 4.93748 -2.37471 
667 14 1 0 -1.96858 -5.39053 -3.09154 
668 14 1 0 -2.7321 4.9321 -2.79039 
669 14 1 0 -3.1939 4.34151 -2.17489 
670 14 1 0 -3.60679 3.4768 -2.32558 
671 14 1 0 -3.69971 3.72346 -3.25909 
672 14 1 0 -3.84046 4.66897 -3.42375 
673 14 1 0 -2.90044 4.72794 -3.19181 
674 14 1 0 -2.65988 3.83333 -3.47938 
675 14 1 0 -3.3172 4.27529 -4.0393 
676 14 1 0 -2.5227 4.5429 -4.52722 
677 14 1 0 -2.28644 3.60518 -4.60317 
678 14 1 0 -1.43992 3.91156 -4.242 
679 14 1 0 -1.64151 4.71423 -4.74795 
680 14 1 0 -2.34641 5.28166 -5.09728 
681 14 1 0 -1.84113 -4.9615 5.16797 
682 14 1 0 -1.72134 -4.11142 4.7164 
683 14 1 0 -1.41791 -4.12512 -5.20197 
684 14 1 0 -2.09826 -4.39307 5.00026 
685 14 1 0 -2.59929 -4.03698 4.24988 
686 14 1 0 -2.95317 -3.28277 3.75305 
687 14 1 0 -3.78064 -3.76767 3.89814 
688 14 1 0 -3.28558 -4.49735 4.30234 
689 14 1 0 -2.485 -4.65664 4.82637 
690 14 1 0 -2.93248 -4.21425 -5.275 
691 14 1 0 -2.79227 -3.31837 5.22014 
692 14 1 0 -3.61532 -3.4828 4.73388 
693 14 1 0 -3.52432 -4.0278 3.93664 
694 14 1 0 -4.34156 -3.53045 3.77645 
695 14 1 0 -4.25912 -3.66813 4.73308 
696 14 1 0 -3.45995 -4.19428 4.57373 
697 14 1 0 -2.49677 -4.12563 4.66578 
698 14 1 0 -2.57647 -3.16235 4.74728 
699 14 1 0 -2.07855 -3.03213 3.92507 
700 14 1 0 -2.38109 -2.84661 3.02233 
701 15 1 0 -2.15129 4.17339 -0.819367 
702 15 1 0 -2.99478 4.62246 -0.652773 
703 15 1 0 -2.86287 4.80224 0.29125 
704 15 1 0 -1.96522 5.16608 0.343602 
705 15 1 0 -1.36429 4.69764 0.943899 
706 15 1 0 -0.581031 4.16169 1.14428 
707 15 1 0 -0.420708 3.25888 0.827823 
708 15 1 0 -0.804039 3.51651 -0.0251618 
709 15 1 0 -1.75964 3.36597 0.0459588 
710 15 1 0 -2.37018 3.61 0.759116 
711 15 1 0 -2.04596 3.23357 1.59223 
712 15 1 0 -1.39694 3.89339 1.30187 
713 15 1 0 -1.46137 4.44213 2.09913 
714 15 1 0 -1.06866 5.23628 2.49412 
715 15 1 0 -1.03337 5.33812 3.45811 
716 15 1 0 -0.454614 -4.98289 4.03864 
717 15 1 0 -1.0808 -4.61374 4.68092 
718 15 1 0 -2.04361 -4.66343 4.57402 
719 15 1 0 -2.99498 -4.51696 4.69381 
720 15 1 0 -3.85307 -4.88251 4.42745 
721 15 1 0 -3.14407 -4.96035 3.77006 
722 15 1 0 -3.23291 5.34488 2.96541 
723 15 1 0 -4.17621 5.19381 2.79734 
724 15 1 0 -4.24391 -5.18298 1.94756 
725 15 1 0 -4.86162 -4.50483 1.63221 
726 15 1 0 -4.75652 -4.08054 0.76628 
727 15 1 0 -3.9562 -4.62593 0.820524 
728 15 1 0 -3.03018 -4.59471 0.533449 
729 15 1 0 -2.08793 -4.82216 0.496923 
730 15 1 0 -1.59467 -4.89979 1.32852 
731 15 1 0 -2.50621 -4.91671 1.65975 
732 15 1 0 -2.77956 -5.15882 2.55839 
733 15 1 0 -3.38105 -4.46469 2.87032 
734 15 1 0 -3.97611 -3.86556 3.34765 
735 15 1 0 -4.09909 -3.75283 4.3032 
736 15 1 0 -4.44078 -2.93479 3.90955 
737 15 1 0 -4.59132 -2.80674 2.95989 
738 15 1 0 -4.12399 -3.60934 2.68001 
739 15 1 0 -3.62424 -2.94774 2.1766 
740 15 1 0 -2.71191 -2.66103 2.01425 
741 15 1 0 -1.88513 -2.23834 1.73376 
742 15 1 0 -2.33108 -1.38623 1.86002 
743 15 1 0 -1.446 -1.11358 2.14846 
744 15 1 0 -0.690032 -1.26089 2.73814 
745 15 1 0 -0.7192 -2.21597 2.90509 
746 15 1 0 -0.786452 -3.14466 3.17698 
747 15 1 0 -0.799202 -3.44324 2.25417 
748 15 1 0 -0.774538 -4.16391 1.60538 
749 15 1 0 -1.452 -4.64536 2.10553 
750 15 1 0 -1.91458 -4.99783 1.3292 
751 16 1 0 -2.50114 -0.655698 3.54915 
752 16 1 0 -2.39053 -1.4735 3.03939 
753 16 1 0 -1.86651 -1.51554 3.85458 
754 16 1 0 -1.56019 -2.0209 4.62378 
755 16 1 0 -1.95225 -1.81557 -5.35266 
756 16 1 0 -2.58311 -1.98713 4.77035 
757 16 1 0 -3.10477 -1.35636 4.24987 
758 16 1 0 -3.25194 -0.76729 3.49341 
759 16 1 0 -2.42689 -0.579789 3.96778 
760 16 1 0 -1.90994 0.0808412 3.48072 
761 16 1 0 -1.0608 -0.147772 3.8901 
762 16 1 0 -1.53163 -0.560391 4.63103 
763 16 1 0 -0.60128 -0.644188 4.89244 
764 16 1 0 0.337053 -0.398902 4.90871 
765 16 1 0 1.07005 -0.481927 -5.30102 
766 16 1 0 1.45168 -1.1426 4.9396 
767 16 1 0 1.75954 -1.2765 -4.98994 
768 16 1 0 1.75574 -1.5559 -4.06106 
769 16 1 0 2.13108 -2.44778 -4.12873 
770 16 1 0 1.18382 -2.37276 -4.32362 
771 16 1 0 1.07228 -3.16907 -3.78107 
772 16 1 0 0.837149 -3.48058 -4.66909 
773 16 1 0 0.410696 -4.24129 -5.09377 
774 16 1 0 -0.331644 -3.73427 -4.72942 
775 16 1 0 -0.270661 -4.36321 -3.99347 
776 16 1 0 0.417207 -5.03974 -3.89326 
777 16 1 0 1.24643 -4.54494 -3.80128 
778 16 1 0 1.776 -5.30819 -3.52217 
779 16 1 0 1.66572 4.99414 -2.72211 
780 16 1 0 1.16205 -5.1426 -3.16168 
781 16 1 0 0.441163 -4.56275 -2.87013 
782 16 1 0 -0.0809872 -4.04039 -2.24132 
783 16 1 0 -0.256175 -3.14373 -2.56721 
784 16 1 0 -1.02216 -2.5693 -2.72277 
785 16 1 0 -1.8244 -2.84436 -3.19357 
786 16 1 0 -1.29566 -3.63341 -2.99677 
787 16 1 0 -0.363898 -3.38844 -2.88405 
788 16 1 0 0.109296 -3.9895 -2.28764 
789 16 1 0 0.361977 -4.5569 -1.54258 
790 16 1 0 0.51979 5.32605 -1.51358 
791 16 1 0 1.30303 -5.14249 -1.07796 
792 16 1 0 1.30228 -5.06518 -0.11105 
793 16 1 0 1.14246 -4.12063 -0.263326 
794 16 1 0 0.189927 -4.27141 -0.159216 
795 16 1 0 -0.611277 -4.74022 -0.440614 
796 16 1 0 -0.753069 -3.9554 -0.99275 
797 16 1 0 -0.545456 -3.67611 -1.89817 
798 16 1 0 0.01798 -3.81965 -2.6746 
799 16 1 0 0.24903 -3.82247 -3.61668 
800 16 1 0 -0.0137183 -3.95522 -4.54093 

Bonds

1 1 1 2 
2 1 2 3 
3 1 3 4 
4 1 4 5 
5 1 5 6 
6 1 6 7 
7 1 7 8 
8 1 8 9 
9 1 9 10 
10 1 10 11 
11 1 11 12 
12 1 12 13 
13 1 13 14 
14 1 14 15 
15 1 15 16 
16 1 16 17 
17 1 17 18 